
     Program PHONON v.7.4.1 starts on 23Jul2026 at  2:18:24 

     This program is part of the open-source Quantum ESPRESSO suite
     for quantum simulation of materials; please cite
         "P. Giannozzi et al., J. Phys.:Condens. Matter 21 395502 (2009);
         "P. Giannozzi et al., J. Phys.:Condens. Matter 29 465901 (2017);
         "P. Giannozzi et al., J. Chem. Phys. 152 154105 (2020);
          URL http://www.quantum-espresso.org", 
     in publications or presentations arising from this work. More details at
     http://www.quantum-espresso.org/quote

     Parallel version (MPI & OpenMP), running on      36 processor cores
     Number of MPI processes:                 6
     Threads/MPI process:                     6

     MPI processes distributed on     1 nodes
     14920 MiB available memory on the printing compute node when the environment starts

     Reading input from graphene_ph.in
      Title line not specified: using 'default'.

     Reading xml data from directory:

     ./temp/graphene.save/

     R & G space division:  proc/nbgrp/npool/nimage =       6
     Subspace diagonalization in iterative solution of the eigenvalue problem:
     a serial algorithm will be used


     IMPORTANT: XC functional enforced from input :
     Exchange-correlation= PBE
                           (   1   4   3   4   0   0   0)
     Any further DFT definition will be discarded
     Please, verify this is what you really want


     Parallelization info
     --------------------
     sticks:   dense  smooth     PW     G-vecs:    dense   smooth      PW
     Min          99      40     13                 5903     1494     283
     Max         100      41     15                 5912     1501     288
     Sum         595     241     85                35435     8973    1713

     Using Slab Decomposition


     Check: negative core charge=   -0.000004

     negative rho (up, down):  9.551E-06 0.000E+00
     Reading collected, re-writing distributed wavefunctions in ./temp/


     Dynamical matrices for ( 1, 1, 1)  uniform grid of q-points
     (   1 q-points):
       N         xq(1)         xq(2)         xq(3) 
       1   0.000000000   0.000000000   0.000000000

     Number and degeneracy of irreps per q-point
       N         xq(1)         xq(2)         xq(3)   N irreps
       1   0.000000000   0.000000000   0.000000000       4
        1   2   1   2

     Calculation of q =    0.0000000   0.0000000   0.0000000

     default                                                                    

     bravais-lattice index     =            4
     lattice parameter (alat)  =       4.6540  a.u.
     unit-cell volume          =     261.8973 (a.u.)^3
     number of atoms/cell      =            2
     number of atomic types    =            1
     kinetic-energy cut-off    =      40.0000  Ry
     charge density cut-off    =     400.0000  Ry
     convergence threshold     =      1.0E-14
     beta                      =       0.7000
     number of iterations used =            4
     Exchange-correlation= PBE
                           (   1   4   3   4   0   0   0)


     celldm(1)=    4.65400  celldm(2)=    0.00000  celldm(3)=    3.00000
     celldm(4)=    0.00000  celldm(5)=    0.00000  celldm(6)=    0.00000

     crystal axes: (cart. coord. in units of alat)
               a(1) = (  1.0000  0.0000  0.0000 )  
               a(2) = ( -0.5000  0.8660  0.0000 )  
               a(3) = (  0.0000  0.0000  3.0000 )  

     reciprocal axes: (cart. coord. in units 2 pi/alat)
               b(1) = (  1.0000  0.5774 -0.0000 )  
               b(2) = (  0.0000  1.1547  0.0000 )  
               b(3) = (  0.0000 -0.0000  0.3333 )  


     Atoms inside the unit cell: 

     Cartesian axes

     site n.  atom      mass           positions (alat units)
        1  C      12.0107   tau(    1) = (    0.00000    0.00000    0.00000  )
        2  C      12.0107   tau(    2) = (    0.00000    0.57735    0.00000  )

     Computing dynamical matrix for 
                    q = (   0.0000000   0.0000000   0.0000000 )

     25 Sym.Ops. (with q -> -q+G )


     G cutoff =  219.4588  (   5912 G-vectors)     FFT grid: ( 30, 30, 90)
     G cutoff =   87.7835  (   1494 G-vectors)  smooth grid: ( 24, 24, 60)

     number of k points=    12  Gaussian smearing, width (Ry)=  0.0100

     PseudoPot. # 1 for C  read from file:
     ./C.pbe-n-rrkjus_psl.1.0.0.UPF
     MD5 check sum: 1fdd950c42eb37d8afe3dd2f8d12311e
     Pseudo is Ultrasoft + core correction, Zval =  4.0
     Generated using &quot;atomic&quot; code by A. Dal Corso  v.6.3MaX
     Using radial grid of 1073 points,  4 beta functions with: 
                l(1) =   0
                l(2) =   0
                l(3) =   1
                l(4) =   1
     Q(r) pseudized with 0 coefficients 


     Mode symmetry, D_6h(6/mmm) point group:


     Atomic displacements:
     There are    4 irreducible representations

     Representation     1      1 modes -  To be done

     Representation     2      2 modes -  To be done

     Representation     3      1 modes -  To be done

     Representation     4      2 modes -  To be done



     Alpha used in Ewald sum =   2.8000

     negative rho (up, down):  9.551E-06 0.000E+00
     PHONON       :     56.65s CPU   1m 1.55s WALL



     Representation #   1 mode #   1

     Self-consistent Calculation

     Pert. #  1: Fermi energy shift (Ry) =     0.0000E+00     0.0000E+00

      iter #   1 total cpu time :   154.0 secs   av.it.:   3.9
      thresh= 1.000E-02 alpha_mix =  0.700 |ddv_scf|^2 =  1.032E-06

     Pert. #  1: Fermi energy shift (Ry) =     0.0000E+00     0.0000E+00

      iter #   2 total cpu time :   270.7 secs   av.it.:   6.2
      thresh= 1.016E-04 alpha_mix =  0.700 |ddv_scf|^2 =  9.364E-08

     Pert. #  1: Fermi energy shift (Ry) =     0.0000E+00     0.0000E+00

      iter #   3 total cpu time :   380.2 secs   av.it.:   6.1
      thresh= 3.060E-05 alpha_mix =  0.700 |ddv_scf|^2 =  1.661E-11

     Pert. #  1: Fermi energy shift (Ry) =     0.0000E+00     0.0000E+00

      iter #   4 total cpu time :   518.6 secs   av.it.:   7.8
      thresh= 4.076E-07 alpha_mix =  0.700 |ddv_scf|^2 =  3.645E-13

     Pert. #  1: Fermi energy shift (Ry) =     0.0000E+00     0.0000E+00

      iter #   5 total cpu time :   642.4 secs   av.it.:   7.0
      thresh= 6.037E-08 alpha_mix =  0.700 |ddv_scf|^2 =  1.168E-15

     End of self-consistent calculation

     Convergence has been achieved 


     Representation #   2 modes #   2   3

     Self-consistent Calculation

     Pert. #  1: Fermi energy shift (Ry) =     0.0000E+00     0.0000E+00
     Pert. #  2: Fermi energy shift (Ry) =    -3.6140E-20     3.8265E-41

      iter #   1 total cpu time :   860.3 secs   av.it.:   5.2
      thresh= 1.000E-02 alpha_mix =  0.700 |ddv_scf|^2 =  1.716E-07

     Pert. #  1: Fermi energy shift (Ry) =    -3.3528E-22     0.0000E+00
     Pert. #  2: Fermi energy shift (Ry) =     2.5587E-22     1.9132E-41

      iter #   2 total cpu time :  1174.2 secs   av.it.:   9.2
      thresh= 4.143E-05 alpha_mix =  0.700 |ddv_scf|^2 =  6.797E-09

     Pert. #  1: Fermi energy shift (Ry) =    -3.7499E-23    -6.8877E-41
     Pert. #  2: Fermi energy shift (Ry) =     5.7351E-23     2.8699E-41

      iter #   3 total cpu time :  1442.2 secs   av.it.:   7.5
      thresh= 8.244E-06 alpha_mix =  0.700 |ddv_scf|^2 =  3.189E-10

     Pert. #  1: Fermi energy shift (Ry) =    -1.5441E-23    -6.1224E-41
     Pert. #  2: Fermi energy shift (Ry) =     1.0753E-23     1.5306E-41

      iter #   4 total cpu time :  1709.7 secs   av.it.:   7.7
      thresh= 1.786E-06 alpha_mix =  0.700 |ddv_scf|^2 =  6.885E-14

     Pert. #  1: Fermi energy shift (Ry) =    -4.4116E-24    -3.8265E-41
     Pert. #  2: Fermi energy shift (Ry) =    -5.5145E-25     7.6530E-42

      iter #   5 total cpu time :  2010.6 secs   av.it.:   8.5
      thresh= 2.624E-08 alpha_mix =  0.700 |ddv_scf|^2 =  3.581E-16

     End of self-consistent calculation

     Convergence has been achieved 


     Representation #   3 mode #   4

     Self-consistent Calculation

     Pert. #  1: Fermi energy shift (Ry) =     1.1029E-24     0.0000E+00

      iter #   1 total cpu time :  2130.2 secs   av.it.:   5.8
      thresh= 1.000E-02 alpha_mix =  0.700 |ddv_scf|^2 =  4.732E-05

     Pert. #  1: Fermi energy shift (Ry) =     2.2058E-24     0.0000E+00

      iter #   2 total cpu time :  2270.0 secs   av.it.:   7.8
      thresh= 6.879E-04 alpha_mix =  0.700 |ddv_scf|^2 =  2.648E-05

     Pert. #  1: Fermi energy shift (Ry) =     0.0000E+00     0.0000E+00

      iter #   3 total cpu time :  2404.6 secs   av.it.:   7.2
      thresh= 5.146E-04 alpha_mix =  0.700 |ddv_scf|^2 =  5.650E-08

     Pert. #  1: Fermi energy shift (Ry) =     1.1029E-24     0.0000E+00

      iter #   4 total cpu time :  2518.6 secs   av.it.:   6.1
      thresh= 2.377E-05 alpha_mix =  0.700 |ddv_scf|^2 =  1.896E-11

     Pert. #  1: Fermi energy shift (Ry) =    -1.1029E-24     0.0000E+00

      iter #   5 total cpu time :  2643.1 secs   av.it.:   6.8
      thresh= 4.354E-07 alpha_mix =  0.700 |ddv_scf|^2 =  9.741E-13

     Pert. #  1: Fermi energy shift (Ry) =    -1.1029E-24     0.0000E+00

      iter #   6 total cpu time :  2766.4 secs   av.it.:   6.7
      thresh= 9.869E-08 alpha_mix =  0.700 |ddv_scf|^2 =  6.352E-16

     End of self-consistent calculation

     Convergence has been achieved 


     Representation #   4 modes #   5   6

     Self-consistent Calculation

     Pert. #  1: Fermi energy shift (Ry) =     5.5145E-25    -2.5077E-36
     Pert. #  2: Fermi energy shift (Ry) =    -1.3786E-24     0.0000E+00

      iter #   1 total cpu time :  2978.3 secs   av.it.:   4.8
      thresh= 1.000E-02 alpha_mix =  0.700 |ddv_scf|^2 =  1.077E-07

     Pert. #  1: Fermi energy shift (Ry) =     0.0000E+00     0.0000E+00
     Pert. #  2: Fermi energy shift (Ry) =    -8.2718E-25     2.3510E-38

      iter #   2 total cpu time :  3268.2 secs   av.it.:   8.3
      thresh= 3.282E-05 alpha_mix =  0.700 |ddv_scf|^2 =  8.625E-09

     Pert. #  1: Fermi energy shift (Ry) =     0.0000E+00    -1.7143E-39
     Pert. #  2: Fermi energy shift (Ry) =    -1.1029E-24    -4.8979E-40

      iter #   3 total cpu time :  3539.5 secs   av.it.:   7.5
      thresh= 9.287E-06 alpha_mix =  0.700 |ddv_scf|^2 =  2.602E-11

     Pert. #  1: Fermi energy shift (Ry) =     0.0000E+00    -1.4694E-39
     Pert. #  2: Fermi energy shift (Ry) =    -8.2718E-25    -4.8979E-40

      iter #   4 total cpu time :  3833.6 secs   av.it.:   8.5
      thresh= 5.101E-07 alpha_mix =  0.700 |ddv_scf|^2 =  5.895E-14

     Pert. #  1: Fermi energy shift (Ry) =     0.0000E+00    -9.7958E-40
     Pert. #  2: Fermi energy shift (Ry) =    -5.5145E-25    -2.4489E-40

      iter #   5 total cpu time :  4129.5 secs   av.it.:   8.6
      thresh= 2.428E-08 alpha_mix =  0.700 |ddv_scf|^2 =  1.328E-16

     End of self-consistent calculation

     Convergence has been achieved 

     Number of q in the star =    1
     List of q in the star:
          1   0.000000000   0.000000000   0.000000000

     Diagonalizing the dynamical matrix

     q = (    0.000000000   0.000000000   0.000000000 ) 

 **************************************************************************
     freq (    1) =      -2.200764 [THz] =     -73.409569 [cm-1]
     freq (    2) =       1.661604 [THz] =      55.425141 [cm-1]
     freq (    3) =       1.661604 [THz] =      55.425141 [cm-1]
     freq (    4) =      26.123105 [THz] =     871.372988 [cm-1]
     freq (    5) =      39.444803 [THz] =    1315.736991 [cm-1]
     freq (    6) =      39.444803 [THz] =    1315.736991 [cm-1]
 **************************************************************************

     Mode symmetry, D_6h(6/mmm) point group:

     freq (   1-   1) =        -73.4  [cm-1]   --> A_2u            I  
     freq (   2-   3) =         55.4  [cm-1]   --> E_1u            I  
     freq (   4-   4) =        871.4  [cm-1]   --> B_1g               
     freq (   5-   6) =       1315.7  [cm-1]   --> E_2g            R  

     PHONON       :      1h 8m CPU      1h 8m WALL

     INITIALIZATION: 
     phq_setup    :      0.80s CPU      0.80s WALL (       1 calls)
     phq_init     :     52.36s CPU     57.25s WALL (       1 calls)

     phq_init     :     52.36s CPU     57.25s WALL (       1 calls)
     set_drhoc    :      0.03s CPU      0.03s WALL (       3 calls)
     init_vloc    :      0.07s CPU      0.05s WALL (       1 calls)
     init_us_1    :      0.13s CPU      0.12s WALL (       1 calls)
     init_us_2    :     10.34s CPU     10.28s WALL (     432 calls)
     newd         :      0.21s CPU      0.21s WALL (       1 calls)
     dvanqq       :      7.82s CPU      7.95s WALL (       1 calls)
     drho         :     41.34s CPU     46.08s WALL (       1 calls)
     drhous       :     39.33s CPU     43.87s WALL (       1 calls)
     nldyntot     :      0.01s CPU      0.01s WALL (       1 calls)

     DYNAMICAL MATRIX:
     dynmat0      :      2.13s CPU      2.14s WALL (       1 calls)
     dynmat_us    :      1.19s CPU      1.20s WALL (       1 calls)
     addusdynmat  :      0.00s CPU      0.00s WALL (       1 calls)
     d2ionq       :      0.11s CPU      0.11s WALL (       1 calls)
     dynmatcc     :      0.83s CPU      0.83s WALL (       1 calls)
     phqscf       :   4065.72s CPU   4071.72s WALL (       1 calls)
     dynmatrix    :      0.00s CPU      0.00s WALL (       1 calls)

     phqscf       :   4065.72s CPU   4071.72s WALL (       1 calls)
     solve_linter :   4059.48s CPU   4065.51s WALL (       4 calls)
     sth_kernel   :   3891.42s CPU   3897.01s WALL (      21 calls)
     h_prec       :     11.90s CPU     11.93s WALL (     252 calls)
     apply_dpot_b :    172.68s CPU    173.11s WALL (     300 calls)
     ortho        :     30.37s CPU     30.27s WALL (     372 calls)
     cgsolve      :   3436.32s CPU   3441.40s WALL (     372 calls)
     incdrhoscf   :    234.73s CPU    234.99s WALL (     372 calls)
                                        0.00s GPU  (     372 calls)
     addusddens   :      4.39s CPU      4.47s WALL (      25 calls)
     dv_of_drho   :     25.05s CPU     25.11s WALL (      31 calls)
     mix_pot      :      1.49s CPU      1.54s WALL (      21 calls)
     ef_shift     :      5.69s CPU      5.76s WALL (      21 calls)
     ef_shift_wfc :      0.00s CPU      0.00s WALL (       4 calls)
     localdos     :     18.74s CPU     18.61s WALL (       4 calls)
     drhodv       :      6.11s CPU      6.09s WALL (       4 calls)
     psymdvscf    :      1.75s CPU      1.92s WALL (      21 calls)
     newdq        :      4.10s CPU      4.11s WALL (      21 calls)
     adddvscf     :      0.01s CPU      0.01s WALL (     300 calls)
     com_dvloc    :      6.79s CPU      6.79s WALL (     102 calls)
                                        0.00s GPU  (     102 calls)
     addcore      :      5.55s CPU      5.54s WALL (      73 calls)
                                        0.00s GPU  (      73 calls)
     drhodvus     :      0.03s CPU      0.05s WALL (       4 calls)

     dvqpsi_us    :     87.79s CPU     87.80s WALL (      72 calls)
                                        0.00s GPU  (      72 calls)
     dvqpsi_us_on :      0.01s CPU      0.01s WALL (      72 calls)

     add_vuspsi   :      0.04s CPU      0.06s WALL (    3392 calls)
     addusdbec    :     23.59s CPU     23.77s WALL (     444 calls)

     drhodvus     :      0.03s CPU      0.05s WALL (       4 calls)

      General routines
     calbec       :    256.71s CPU    260.91s WALL (    8056 calls)
     fft          :     49.35s CPU     49.65s WALL (     694 calls)
     ffts         :     25.57s CPU     25.53s WALL (     371 calls)
     fftw         :   2034.56s CPU   2041.74s WALL (   29994 calls)
     davcio       :      0.08s CPU      0.14s WALL (    1953 calls)
     write_rec    :      0.32s CPU      0.33s WALL (      25 calls)

      Additional routines
     ch_psi       :   3226.52s CPU   3231.73s WALL (    3392 calls)
     last         :    302.28s CPU    302.57s WALL (    3392 calls)
     Hesh         :      0.01s CPU      0.01s WALL (    3392 calls)
     ch_psi_all_k :    302.26s CPU    302.55s WALL (    3392 calls)
                                        0.00s GPU  (    3392 calls)
     ch_psi_calbe :     51.32s CPU     51.90s WALL (    3392 calls)
                                        0.00s GPU  (    3392 calls)
     h_psi_bgrp   :   2853.47s CPU   2860.38s WALL (    3392 calls)
     h_psi        :   2853.44s CPU   2860.36s WALL (    3392 calls)
     h_psi:pot    :   2775.97s CPU   2781.91s WALL (    3392 calls)
     h_psi:calbec :    170.50s CPU    172.85s WALL (    3392 calls)
     s_psi_bgrp   :    155.16s CPU    153.36s WALL (    7156 calls)
     s_psi        :      0.08s CPU      0.08s WALL (    7156 calls)


     PHONON       :      1h 8m CPU      1h 8m WALL


   This run was terminated on:   3:27:17  23Jul2026            

=------------------------------------------------------------------------------=
   JOB DONE.
=------------------------------------------------------------------------------=
Note: The following floating-point exceptions are signalling: IEEE_DENORMAL
Note: The following floating-point exceptions are signalling: IEEE_DENORMAL
Note: The following floating-point exceptions are signalling: IEEE_DENORMAL
